# vtk DataFile Version 2.0
depSolver v2.0
ASCII

DATASET STRUCTURED_POINTS
DIMENSIONS 21 21 1
ORIGIN -2.500000e-05 -2.500000e-05 1.000000e-05
SPACING 2.500000e-06 2.500000e-06 0.000000e+00

POINT_DATA 441

SCALARS Re[V] double
LOOKUP_TABLE default
-2.370690e+00
-2.330208e+00
-2.257609e+00
-2.147999e+00
-1.995149e+00
-1.792294e+00
-1.533739e+00
-1.217300e+00
-8.470249e-01
-4.347952e-01
4.332186e-04
4.356343e-01
8.477801e-01
1.217916e+00
1.534173e+00
1.792529e+00
1.995192e+00
2.147884e+00
2.257391e+00
2.329965e+00
2.370527e+00
-2.330118e+00
-2.290782e+00
-2.219638e+00
-2.111879e+00
-1.961397e+00
-1.761597e+00
-1.506993e+00
-1.195623e+00
-8.316533e-01
-4.268424e-01
2.984346e-04
4.274199e-01
8.321720e-01
1.196044e+00
1.507287e+00
1.761750e+00
1.961415e+00
2.111785e+00
2.219475e+00
2.290613e+00
2.330027e+00
-2.257533e+00
-2.219633e+00
-2.150225e+00
-2.044727e+00
-1.897369e+00
-1.702052e+00
-1.453936e+00
-1.151730e+00
-7.999981e-01
-4.102332e-01
1.645146e-04
4.105503e-01
8.002785e-01
1.151949e+00
1.454073e+00
1.702096e+00
1.897319e+00
2.044595e+00
2.150041e+00
2.219441e+00
2.257399e+00
-2.148016e+00
-2.111930e+00
-2.044765e+00
-1.942304e+00
-1.799352e+00
-1.610631e+00
-1.372339e+00
-1.084210e+00
-7.513336e-01
-3.846925e-01
4.266600e-05
3.847722e-01
7.513960e-01
1.084242e+00
1.372327e+00
1.610559e+00
1.799212e+00
1.942098e+00
2.044506e+00
2.111646e+00
2.147750e+00
-1.995311e+00
-1.961543e+00
-1.897468e+00
-1.799396e+00
-1.662942e+00
-1.483950e+00
-1.259954e+00
-9.918720e-01
-6.852310e-01
-3.501482e-01
-5.647876e-05
3.500353e-01
6.851176e-01
9.917534e-01
1.259816e+00
1.483774e+00
1.662710e+00
1.799098e+00
1.897102e+00
1.961118e+00
1.994850e+00
-1.792629e+00
-1.761854e+00
-1.702215e+00
-1.610708e+00
-1.483967e+00
-1.319171e+00
-1.115292e+00
-8.743283e-01
-6.019125e-01
-3.068840e-01
-1.203421e-04
3.066482e-01
6.016894e-01
8.741170e-01
1.115076e+00
1.318925e+00
1.483663e+00
1.610323e+00
1.701734e+00
1.761266e+00
1.791938e+00
-1.534247e+00
-1.507357e+00
-1.454149e+00
-1.372423e+00
-1.259948e+00
-1.115255e+00
-9.385791e-01
-7.326011e-01
-5.025596e-01
-2.556550e-01
-1.379182e-04
2.553877e-01
5.023138e-01
7.323763e-01
9.383544e-01
1.114994e+00
1.259614e+00
1.371980e+00
1.453567e+00
1.506610e+00
1.533322e+00
-1.217956e+00
-1.196068e+00
-1.151966e+00
-1.084267e+00
-9.918012e-01
-8.742010e-01
-7.324990e-01
-5.694546e-01
-3.893997e-01
-1.976901e-01
-1.068432e-04
1.974876e-01
3.892244e-01
5.693039e-01
7.323444e-01
8.739963e-01
9.914961e-01
1.083814e+00
1.151322e+00
1.195195e+00
1.216824e+00
-8.477762e-01
-8.321371e-01
-8.002214e-01
-7.513303e-01
-6.850607e-01
-6.016563e-01
-5.023104e-01
-3.892449e-01
-2.655017e-01
-1.345661e-01
-3.798859e-05
1.345035e-01
2.654705e-01
3.892392e-01
5.022940e-01
6.015713e-01
6.848438e-01
7.509219e-01
7.995677e-01
8.311903e-01
8.464946e-01
-4.355788e-01
-4.273168e-01
-4.104069e-01
-3.846026e-01
-3.498584e-01
-3.064819e-01
-2.552418e-01
-1.973615e-01
-1.343891e-01
-6.801754e-02
4.841338e-05
6.812974e-02
1.345369e-01
1.975368e-01
2.554014e-01
3.065572e-01
3.497732e-01
3.842852e-01
4.097942e-01
4.263525e-01
4.342121e-01
-3.239122e-04
-1.245135e-04
6.850858e-05
2.356703e-04
3.595706e-04
4.269928e-04
4.333988e-04
3.863548e-04
3.051432e-04
2.138248e-04
1.317139e-04
6.733921e-05
1.725661e-05
-3.124659e-05
-9.371320e-05
-1.807724e-04
-2.953406e-04
-4.370133e-04
-6.080418e-04
-8.168640e-04
-1.076768e-03
4.349528e-01
4.270791e-01
4.105466e-01
3.850704e-01
3.505694e-01
3.073242e-01
2.560942e-01
1.981178e-01
1.349817e-01
6.842746e-02
1.978720e-04
-6.801145e-02
-1.345178e-01
-1.976132e-01
-2.556005e-01
-3.069272e-01
-3.503683e-01
-3.851597e-01
-4.110077e-01
-4.279811e-01
-4.363584e-01
8.472180e-01
8.319343e-01
8.003687e-01
7.517851e-01
6.857438e-01
6.024608e-01
5.031190e-01
3.899542e-01
2.660471e-01
1.349310e-01
2.424424e-04
-1.344243e-01
-2.654880e-01
-3.893488e-01
-5.025208e-01
-6.019611e-01
-6.854480e-01
-7.517942e-01
-8.007693e-01
-8.327990e-01
-8.486134e-01
1.217511e+00
1.195924e+00
1.152125e+00
1.084696e+00
9.924335e-01
8.749407e-01
7.332383e-01
5.700971e-01
3.898855e-01
1.980051e-01
2.702422e-04
-1.974437e-01
-3.892738e-01
-5.694420e-01
-7.325944e-01
-8.744001e-01
-9.921014e-01
-1.084672e+00
-1.152495e+00
-1.196760e+00
-1.218884e+00
1.533952e+00
1.507289e+00
1.454323e+00
1.372818e+00
1.260514e+00
1.115914e+00
9.392396e-01
7.331779e-01
5.029992e-01
2.559441e-01
2.914684e-04
-2.553444e-01
-5.023604e-01
-7.325105e-01
-9.385983e-01
-1.115387e+00
-1.260199e+00
-1.372804e+00
-1.454690e+00
-1.508106e+00
-1.535288e+00
1.792495e+00
1.761869e+00
1.702405e+00
1.611068e+00
1.484467e+00
1.319754e+00
1.115885e+00
8.748627e-01
6.023415e-01
3.071928e-01
3.156085e-04
-3.065521e-01
-6.016816e-01
-8.742005e-01
-1.115274e+00
-1.319273e+00
-1.484200e+00
-1.611093e+00
-1.702789e+00
-1.762674e+00
-1.793786e+00
1.995326e+00
1.961633e+00
1.897673e+00
1.799728e+00
1.663388e+00
1.484476e+00
1.260508e+00
9.924012e-01
6.856953e-01
3.505287e-01
3.481929e-04
-3.498324e-01
-6.850055e-01
-9.917433e-01
-1.259933e+00
-1.484051e+00
-1.663183e+00
-1.799805e+00
-1.898086e+00
-1.962435e+00
-1.996572e+00
2.148147e+00
2.112073e+00
2.044975e+00
1.942610e+00
1.799761e+00
1.611127e+00
1.372891e+00
1.084777e+00
7.518804e-01
3.851929e-01
3.924391e-04
-3.844180e-01
-7.511398e-01
-1.084106e+00
-1.372339e+00
-1.610752e+00
-1.799618e+00
-1.942746e+00
-2.045430e+00
-2.112888e+00
-2.149365e+00
2.257727e+00
2.219791e+00
2.150419e+00
2.045004e+00
1.897753e+00
1.702544e+00
1.454520e+00
1.152376e+00
8.006698e-01
4.108936e-01
4.510022e-04
-4.100110e-01
-7.998486e-01
-1.151664e+00
-1.453970e+00
-1.702206e+00
-1.897667e+00
-2.045205e+00
-2.150936e+00
-2.220648e+00
-2.258952e+00
2.330296e+00
2.290897e+00
2.219778e+00
2.112109e+00
1.961756e+00
1.762101e+00
1.507637e+00
1.196380e+00
8.324823e-01
4.276933e-01
5.250355e-04
-4.266720e-01
-8.315498e-01
-1.195599e+00
-1.507066e+00
-1.761787e+00
-1.961732e+00
-2.112396e+00
-2.220390e+00
-2.291845e+00
-2.331591e+00
2.370751e+00
2.330198e+00
2.257637e+00
2.148144e+00
1.995463e+00
1.792807e+00
1.534450e+00
1.218182e+00
8.480270e-01
4.358514e-01
6.102526e-04
-4.346692e-01
-8.469623e-01
-1.217315e+00
-1.533849e+00
-1.792521e+00
-1.995520e+00
-2.148553e+00
-2.258401e+00
-2.331313e+00
-2.372209e+00

SCALARS Im[V] double
LOOKUP_TABLE default
-2.497173e-06
-2.234606e-06
-2.051938e-06
-1.921871e-06
-1.816514e-06
-1.706948e-06
-1.563463e-06
-1.358276e-06
-1.072631e-06
-7.074202e-07
-2.902631e-07
1.311227e-07
5.097116e-07
8.196179e-07
1.061965e-06
1.257115e-06
1.433554e-06
1.620417e-06
1.844398e-06
2.129249e-06
2.496287e-06
-2.106834e-06
-1.872688e-06
-1.717664e-06
-1.615659e-06
-1.539930e-06
-1.462459e-06
-1.353960e-06
-1.186449e-06
-9.403848e-07
-6.155609e-07
-2.384638e-07
1.441901e-07
4.862020e-07
7.623554e-07
9.742465e-07
1.142296e-06
1.294402e-06
1.458444e-06
1.659419e-06
1.919303e-06
2.257882e-06
-1.798401e-06
-1.589790e-06
-1.461975e-06
-1.389339e-06
-1.345063e-06
-1.300150e-06
-1.223277e-06
-1.083720e-06
-8.595751e-07
-5.500314e-07
-1.833866e-07
1.900894e-07
5.204613e-07
7.802175e-07
9.708937e-07
1.114513e-06
1.240885e-06
1.379082e-06
1.554325e-06
1.788130e-06
2.099612e-06
-1.552373e-06
-1.367846e-06
-1.267336e-06
-1.225208e-06
-1.213619e-06
-1.201138e-06
-1.152595e-06
-1.032909e-06
-8.171894e-07
-5.048755e-07
-1.281530e-07
2.565177e-07
5.928354e-07
8.489320e-07
1.025444e-06
1.146631e-06
1.245859e-06
1.355270e-06
1.501882e-06
1.707863e-06
1.992322e-06
-1.346422e-06
-1.186175e-06
-1.113360e-06
-1.102059e-06
-1.122813e-06
-1.140913e-06
-1.116577e-06
-1.010212e-06
-7.946958e-07
-4.709235e-07
-7.569724e-08
3.283604e-07
6.786333e-07
9.382239e-07
1.105729e-06
1.206955e-06
1.279069e-06
1.358180e-06
1.474109e-06
1.650434e-06
1.906668e-06
-1.154699e-06
-1.020464e-06
-9.753501e-07
-9.932424e-07
-1.043055e-06
-1.086977e-06
-1.081434e-06
-9.840708e-07
-7.676838e-07
-4.357320e-07
-2.851784e-08
3.881428e-07
7.483201e-07
1.011285e-06
1.172588e-06
1.257560e-06
1.305556e-06
1.355988e-06
1.441464e-06
1.587124e-06
1.812889e-06
-9.483005e-07
-8.428974e-07
-8.241372e-07
-8.663782e-07
-9.378828e-07
-9.994781e-07
-1.006637e-06
-9.178274e-07
-7.086173e-07
-3.852780e-07
1.149389e-08
4.180690e-07
7.706185e-07
1.027780e-06
1.181942e-06
1.255255e-06
1.285844e-06
1.313734e-06
1.372716e-06
1.488604e-06
1.681082e-06
-6.984536e-07
-6.251244e-07
-6.293027e-07
-6.873619e-07
-7.692970e-07
-8.381722e-07
-8.531657e-07
-7.780727e-07
-5.936144e-07
-3.077078e-07
4.311245e-08
4.038831e-07
7.193885e-07
9.522764e-07
1.093070e-06
1.158510e-06
1.181140e-06
1.197082e-06
1.237793e-06
1.327423e-06
1.483873e-06
-3.841531e-07
-3.459260e-07
-3.678904e-07
-4.308950e-07
-5.103884e-07
-5.766214e-07
-5.978094e-07
-5.470938e-07
-4.114102e-07
-1.979735e-07
6.570009e-08
3.393379e-07
5.823864e-07
7.664323e-07
8.825846e-07
9.412391e-07
9.654711e-07
9.822650e-07
1.015857e-06
1.085016e-06
1.203362e-06
-3.492140e-09
-2.795476e-09
-3.735353e-08
-9.526852e-08
-1.614758e-07
-2.182293e-07
-2.472190e-07
-2.335201e-07
-1.701590e-07
-6.111779e-08
7.902108e-08
2.290834e-07
3.676053e-07
4.790812e-07
5.578161e-07
6.080779e-07
6.409736e-07
6.699808e-07
7.073232e-07
7.623354e-07
8.415211e-07
4.182976e-07
3.797967e-07
3.356019e-07
2.884747e-07
2.413445e-07
1.970135e-07
1.578941e-07
1.258537e-07
1.021994e-07
8.776804e-08
8.303701e-08
8.819273e-08
1.031389e-07
1.274490e-07
1.602759e-07
2.002518e-07
2.454472e-07
2.934423e-07
3.415078e-07
3.868559e-07
4.269122e-07
8.344633e-07
7.559715e-07
7.013907e-07
6.643905e-07
6.357955e-07
6.034779e-07
5.539522e-07
4.760125e-07
3.652701e-07
2.273490e-07
7.776552e-08
-6.193921e-08
-1.704850e-07
-2.331976e-07
-2.460495e-07
-2.160182e-07
-1.580496e-07
-9.044451e-08
-3.087838e-08
5.725095e-09
7.680175e-09
1.197061e-06
1.078784e-06
1.009521e-06
9.758112e-07
9.590659e-07
9.351762e-07
8.771650e-07
7.618379e-07
5.786270e-07
3.362967e-07
6.323314e-08
-1.999431e-07
-4.128361e-07
-5.478003e-07
-5.975267e-07
-5.750370e-07
-5.071725e-07
-4.256812e-07
-3.602216e-07
-3.351805e-07
-3.694553e-07
1.477842e-06
1.321055e-06
1.230972e-06
1.189836e-06
1.173679e-06
1.151195e-06
1.086295e-06
9.463154e-07
7.143214e-07
3.996251e-07
3.952125e-08
-3.107167e-07
-5.959890e-07
-7.796004e-07
-8.535014e-07
-8.368911e-07
-7.659237e-07
-6.813510e-07
-6.199814e-07
-6.116115e-07
-6.795586e-07
1.675120e-06
1.482080e-06
1.365558e-06
1.305989e-06
1.277723e-06
1.247125e-06
1.174216e-06
1.020780e-06
7.644810e-07
4.127563e-07
6.896852e-09
-3.892199e-07
-7.118224e-07
-9.200339e-07
-1.007424e-06
-9.983172e-07
-9.341630e-07
-8.593824e-07
-8.129770e-07
-8.264232e-07
-9.249947e-07
1.806974e-06
1.580557e-06
1.434199e-06
1.348078e-06
1.297194e-06
1.249069e-06
1.164346e-06
1.003609e-06
7.413794e-07
3.819562e-07
-3.400003e-08
-4.405162e-07
-7.716373e-07
-9.868764e-07
-1.082602e-06
-1.085887e-06
-1.038973e-06
-9.852907e-07
-9.624341e-07
-1.001179e-06
-1.127222e-06
1.900854e-06
1.643947e-06
1.466924e-06
1.350347e-06
1.270746e-06
1.198406e-06
1.097266e-06
9.301290e-07
6.710865e-07
3.214339e-07
-8.198030e-08
-4.764961e-07
-7.993607e-07
-1.013596e-06
-1.118133e-06
-1.139944e-06
-1.118478e-06
-1.093335e-06
-1.098965e-06
-1.164476e-06
-1.315330e-06
1.986656e-06
1.701533e-06
1.494868e-06
1.347611e-06
1.237678e-06
1.138129e-06
1.016867e-06
8.405153e-07
5.847586e-07
2.488981e-07
-1.352188e-07
-5.112407e-07
-8.225879e-07
-1.036914e-06
-1.154611e-06
-1.200409e-06
-1.209215e-06
-1.215979e-06
-1.251838e-06
-1.344251e-06
-1.518369e-06
2.094101e-06
1.781966e-06
1.547480e-06
1.371579e-06
1.232810e-06
1.106014e-06
9.621584e-07
7.714402e-07
5.118174e-07
1.817335e-07
-1.912907e-07
-5.572596e-07
-8.657929e-07
-1.088449e-06
-1.225881e-06
-1.299822e-06
-1.340802e-06
-1.379895e-06
-1.445772e-06
-1.564840e-06
-1.762204e-06
2.252483e-06
1.913250e-06
1.652672e-06
1.451003e-06
1.286319e-06
1.133673e-06
9.652240e-07
7.530954e-07
4.768762e-07
1.349851e-07
-2.473241e-07
-6.237802e-07
-9.475615e-07
-1.192052e-06
-1.357312e-06
-1.462712e-06
-1.536028e-06
-1.606278e-06
-1.701132e-06
-1.846893e-06
-2.069126e-06
2.490913e-06
2.123211e-06
1.837636e-06
1.612907e-06
1.425314e-06
1.248208e-06
1.052493e-06
8.097147e-07
4.995468e-07
1.209103e-07
-3.002444e-07
-7.168051e-07
-1.080949e-06
-1.364938e-06
-1.567746e-06
-1.707969e-06
-1.813179e-06
-1.912810e-06
-2.035417e-06
-2.208433e-06
-2.458597e-06

VECTORS Re[E] double
-1.026119e+04	-1.032311e+04	2.689045e+05
-2.234270e+04	-9.912018e+03	2.663454e+05
-3.606471e+04	-9.365646e+03	2.612048e+05
-5.204362e+04	-8.674117e+03	2.527204e+05
-7.069804e+04	-7.831199e+03	2.397099e+05
-9.198196e+04	-6.835122e+03	2.205876e+05
-1.150277e+05	-5.689417e+03	1.935814e+05
-1.378659e+05	-4.403974e+03	1.572900e+05
-1.575566e+05	-2.996881e+03	1.115175e+05
-1.709419e+05	-1.497415e+03	5.792134e+04
-1.756778e+05	5.179076e+01	-7.760706e+01
-1.709198e+05	1.597797e+03	-5.807358e+04
-1.575116e+05	3.087104e+03	-1.116592e+05
-1.378004e+05	4.476696e+03	-1.574116e+05
-1.149496e+05	5.738925e+03	-1.936755e+05
-9.190203e+04	6.858999e+03	-2.206521e+05
-7.062667e+04	7.830205e+03	-2.397477e+05
-5.198986e+04	8.651140e+03	-2.527370e+05
-3.603736e+04	9.325041e+03	-2.612070e+05
-2.235170e+04	9.859656e+03	-2.663409e+05
-1.031846e+04	1.026673e+04	-2.689033e+05
-9.854656e+03	-2.235567e+04	2.663424e+05
-2.182741e+04	-2.184464e+04	2.638241e+05
-3.541041e+04	-2.121806e+04	2.587045e+05
-5.120915e+04	-2.041468e+04	2.502269e+05
-6.962629e+04	-1.934291e+04	2.372209e+05
-9.059606e+04	-1.787050e+04	2.181269e+05
-1.132367e+05	-1.582438e+04	1.912241e+05
-1.355929e+05	-1.302199e+04	1.551891e+05
-1.547930e+05	-9.353033e+03	1.099038e+05
-1.678008e+05	-4.889919e+03	5.704576e+04
-1.723956e+05	5.467065e+01	-4.856657e+01
-1.677852e+05	4.996111e+03	-5.714117e+04
-1.547614e+05	9.449669e+03	-1.099929e+05
-1.355471e+05	1.310294e+04	-1.552659e+05
-1.131818e+05	1.588528e+04	-1.912840e+05
-9.053946e+04	1.791013e+04	-2.181682e+05
-6.957566e+04	1.936313e+04	-2.372449e+05
-5.117186e+04	2.041947e+04	-2.502371e+05
-3.539392e+04	2.121281e+04	-2.587053e+05
-2.184014e+04	2.183607e+04	-2.638212e+05
-9.906716e+03	2.235197e+04	-2.663431e+05
-9.320659e+03	-3.604132e+04	2.612086e+05
-2.120464e+04	-3.539852e+04	2.587088e+05
-3.462913e+04	-3.462090e+04	2.535231e+05
-5.015977e+04	-3.359184e+04	2.449083e+05
-6.814356e+04	-3.212981e+04	2.317276e+05
-8.844868e+04	-2.997059e+04	2.125006e+05
-1.101471e+05	-2.677318e+04	1.856587e+05
-1.313216e+05	-2.218909e+04	1.501020e+05
-1.492901e+05	-1.602115e+04	1.059249e+05
-1.613427e+05	-8.416481e+03	5.484834e+04
-1.655771e+05	5.179437e+01	-2.363886e+01
-1.613330e+05	8.517383e+03	-5.489486e+04
-1.492705e+05	1.611378e+04	-1.059685e+05
-1.312926e+05	2.226823e+04	-1.501398e+05
-1.101114e+05	2.683578e+04	-1.856880e+05
-8.841013e+04	3.001683e+04	-2.125199e+05
-6.810750e+04	3.216253e+04	-2.317368e+05
-5.013203e+04	3.361562e+04	-2.449085e+05
-3.461592e+04	3.464155e+04	-2.535167e+05
-2.121307e+04	3.542311e+04	-2.586992e+05
-9.359401e+03	3.607820e+04	-2.612007e+05
-8.647686e+03	-5.199456e+04	2.527386e+05
-2.041202e+04	-5.117765e+04	2.502407e+05
-3.360352e+04	-5.013859e+04	2.449155e+05
-4.871727e+04	-4.869946e+04	2.360480e+05
-6.600687e+04	-4.658352e+04	2.225690e+05
-8.523815e+04	-4.339809e+04	2.031446e+05
-1.054262e+05	-3.865944e+04	1.764668e+05
-1.247418e+05	-3.191016e+04	1.417858e+05
-1.408183e+05	-2.294157e+04	9.949037e+04
-1.514338e+05	-1.202199e+04	5.131830e+04
-1.551316e+05	4.498755e+01	-1.575730e+00
-1.514292e+05	1.210957e+04	-5.132143e+04
-1.408089e+05	2.302190e+04	-9.949365e+04
-1.247269e+05	3.197920e+04	-1.417893e+05
-1.054052e+05	3.871578e+04	-1.764694e+05
-8.521206e+04	4.344330e+04	-2.031438e+05
-6.597923e+04	4.662111e+04	-2.225627e+05
-4.869266e+04	4.873418e+04	-2.360356e+05
-3.358689e+04	5.017643e+04	-2.448975e+05
-2.040924e+04	5.122586e+04	-2.502181e+05
-8.666406e+03	5.206143e+04	-2.527135e+05
-7.828253e+03	-7.063294e+04	2.397489e+05
-1.935703e+04	-6.958380e+04	2.372482e+05
-3.215143e+04	-6.811732e+04	2.317435e+05
-4.660456e+04	-6.599033e+04	2.225753e+05
-6.284610e+04	-6.283274e+04	2.087941e+05
-8.052399e+04	-5.814442e+04	1.892959e+05
-9.862076e+04	-5.135480e+04	1.631367e+05
-1.154761e+05	-4.199042e+04	1.299958e+05
-1.291527e+05	-2.992796e+04	9.055600e+04
-1.380056e+05	-1.559539e+04	4.648452e+04
-1.410570e+05	3.346600e+01	1.733072e+01
-1.380056e+05	1.566016e+04	-4.645086e+04
-1.291521e+05	2.998664e+04	-9.052596e+04
-1.154720e+05	4.204064e+04	-1.299716e+05
-9.860951e+04	5.139683e+04	-1.631174e+05
-8.050465e+04	5.818077e+04	-1.892774e+05
-6.282103e+04	6.286717e+04	-2.087726e+05
-4.657716e+04	6.602761e+04	-2.225489e+05
-3.212530e+04	6.816350e+04	-2.317107e+05
-1.933692e+04	6.964617e+04	-2.372075e+05
-7.821168e+03	7.071965e+04	-2.396994e+05
-6.859365e+03	-9.191072e+04	2.206525e+05
-1.790640e+04	-9.055105e+04	2.181702e+05
-3.000795e+04	-8.842473e+04	2.125250e+05
-4.342853e+04	-8.522950e+04	2.031544e+05
-5.816082e+04	-8.052445e+04	1.892970e+05
-7.375336e+04	-7.375678e+04	1.701635e+05
-8.922140e+04	-6.436511e+04	1.452395e+05
-1.031708e+05	-5.197889e+04	1.146272e+05
-1.141639e+05	-3.664874e+04	7.920563e+04
-1.211255e+05	-1.896568e+04	4.044646e+04
-1.234983e+05	1.683730e+01	3.059745e+01
-1.211293e+05	1.899765e+04	-4.038742e+04
-1.141696e+05	3.667632e+04	-7.915344e+04
-1.031734e+05	5.200132e+04	-1.145850e+05
-8.921483e+04	6.438393e+04	-1.452055e+05
-7.373525e+04	7.377517e+04	-1.701321e+05
-5.813269e+04	8.054642e+04	-1.892632e+05
-4.339266e+04	8.525992e+04	-2.031150e+05
-2.996672e+04	8.846958e+04	-2.124765e+05
-1.786355e+04	9.061726e+04	-2.181084e+05
-6.821496e+03	9.200593e+04	-2.205731e+05
-5.742607e+03	-1.149615e+05	1.936743e+05
-1.588519e+04	-1.131978e+05	1.912835e+05
-2.683067e+04	-1.101318e+05	1.856894e+05
-3.870455e+04	-1.054301e+05	1.764751e+05
-5.137985e+04	-9.863860e+04	1.631308e+05
-6.436442e+04	-8.924740e+04	1.452300e+05
-7.679845e+04	-7.682702e+04	1.226701e+05
-8.763030e+04	-6.121752e+04	9.586178e+04
-9.591618e+04	-4.268364e+04	6.571339e+04
-1.010526e+05	-2.193469e+04	3.339007e+04
-1.027855e+05	-2.973003e+00	3.482667e+01
-1.010592e+05	2.192752e+04	-3.332358e+04
-9.592594e+04	4.267365e+04	-6.565613e+04
-8.763588e+04	6.120521e+04	-9.581691e+04
-7.679186e+04	7.681495e+04	-1.226344e+05
-6.434233e+04	8.923948e+04	-1.451963e+05
-5.134317e+04	9.863938e+04	-1.630929e+05
-3.865475e+04	1.054446e+05	-1.764281e+05
-2.676942e+04	1.101655e+05	-1.856280e+05
-1.581549e+04	1.132566e+05	-1.912012e+05
-5.670444e+03	1.150519e+05	-1.935635e+05
-4.484791e+03	-1.378161e+05	1.574075e+05
-1.310778e+04	-1.355680e+05	1.552610e+05
-2.226836e+04	-1.313193e+05	1.501349e+05
-3.197307e+04	-1.247595e+05	1.417866e+05
-4.202821e+04	-1.155100e+05	1.299747e+05
-5.198547e+04	-1.032161e+05	1.145973e+05
-6.119109e+04	-8.768197e+04	9.583890e+04
-6.895159e+04	-6.900513e+04	7.422718e+04
-7.473096e+04	-4.763686e+04	5.053296e+04
-7.824898e+04	-2.433072e+04	2.556846e+04
-7.942661e+04	-2.113142e+01	2.856703e+01
-7.825752e+04	2.428752e+04	-2.551539e+04
-7.474294e+04	4.759180e+04	-5.049102e+04
-6.895738e+04	6.895938e+04	-7.419883e+04
-6.118099e+04	8.763873e+04	-9.581917e+04
-5.195523e+04	1.031798e+05	-1.145768e+05
-4.197837e+04	1.154859e+05	-1.299452e+05
-3.190503e+04	1.247526e+05	-1.417417e+05
-2.218393e+04	1.313342e+05	-1.500677e+05
-1.300940e+04	1.356090e+05	-1.551641e+05
-4.377456e+03	1.378886e+05	-1.572707e+05
-3.100686e+03	-1.575310e+05	1.116502e+05
-9.460617e+03	-1.547871e+05	1.099811e+05
-1.612029e+04	-1.493029e+05	1.059543e+05
-2.302194e+04	-1.408481e+05	9.947916e+04
-2.997970e+04	-1.291975e+05	9.051483e+04
-3.666483e+04	-1.142202e+05	7.914936e+04
-4.266224e+04	-9.598020e+04	6.566017e+04
-4.758463e+04	-7.479889e+04	5.050083e+04
-5.117521e+04	-5.124413e+04	3.420258e+04
-5.333242e+04	-2.605179e+04	1.725052e+04
-5.405184e+04	-3.253533e+01	1.454063e+01
-5.334250e+04	2.598591e+04	-1.722634e+04
-5.118859e+04	5.117670e+04	-3.419117e+04
-4.758952e+04	7.473108e+04	-5.050386e+04
-4.264728e+04	9.591508e+04	-6.567081e+04
-3.662468e+04	1.141623e+05	-7.915582e+04
-2.991467e+04	1.291520e+05	-9.050639e+04
-2.293416e+04	1.408200e+05	-9.944741e+04
-1.601229e+04	1.492960e+05	-1.058920e+05
-9.334391e+03	1.548049e+05	-1.098807e+05
-2.960361e+03	1.575777e+05	-1.115000e+05
-1.617627e+03	-1.709414e+05	5.805810e+04
-5.014068e+03	-1.678137e+05	5.712003e+04
-8.531117e+03	-1.613690e+05	5.486833e+04
-1.211646e+04	-1.514725e+05	5.129172e+04
-1.565919e+04	-1.380556e+05	4.642206e+04
-1.899075e+04	-1.211847e+05	4.036364e+04
-2.191880e+04	-1.011183e+05	3.330657e+04
-2.428091e+04	-7.831821e+04	2.550391e+04
-2.598324e+04	-5.340286e+04	1.721741e+04
-2.700013e+04	-2.707065e+04	8.664614e+03
-2.734102e+04	-3.516161e+01	-1.807531e+00
-2.701171e+04	2.699947e+04	-8.673911e+03
-2.599817e+04	5.332976e+04	-1.724114e+04
-2.428548e+04	7.824377e+04	-2.554337e+04
-2.189993e+04	1.010450e+05	-3.335362e+04
-1.894176e+04	1.211164e+05	-4.040438e+04
-1.558012e+04	1.379975e+05	-4.644311e+04
-1.201040e+04	1.514293e+05	-5.128288e+04
-8.401420e+03	1.613445e+05	-5.482192e+04
-4.862697e+03	1.678111e+05	-5.702822e+04
-1.448435e+03	1.709637e+05	-5.790842e+04
-7.785776e+01	-1.756987e+05	5.482649e+01
-7.991495e+01	-1.724231e+05	1.689627e+01
-7.324953e+01	-1.656121e+05	-1.698599e+01
-5.929591e+01	-1.551743e+05	-4.559692e+01
-3.891175e+01	-1.411070e+05	-6.642584e+01
-1.469830e+01	-1.235541e+05	-7.675555e+01
9.071344e+00	-1.028452e+05	-7.522300e+01
2.722696e+01	-7.948786e+04	-6.319485e+01
3.606743e+01	-5.411296e+04	-4.540464e+01
3.565896e+01	-2.740138e+04	-2.797778e+01
2.945495e+01	-3.052441e+01	-1.549414e+01
2.229180e+01	2.733931e+04	-9.572366e+00
1.866634e+01	5.404830e+04	-8.824543e+00
2.123176e+01	7.942037e+04	-9.446924e+00
2.947226e+01	1.027765e+05	-7.028698e+00
4.033212e+01	1.234878e+05	6.271672e-01
5.125179e+01	1.410476e+05	1.249330e+01
6.221327e+01	1.551267e+05	2.643606e+01
7.517123e+01	1.655800e+05	4.152812e+01
9.285541e+01	1.724090e+05	5.952756e+01
1.156351e+02	1.757052e+05	8.566540e+01
1.466288e+03	-1.709590e+05	-5.795038e+04
4.858188e+03	-1.678228e+05	-5.708658e+04
8.387549e+03	-1.613711e+05	-5.490175e+04
1.199996e+04	-1.514695e+05	-5.138218e+04
1.558296e+04	-1.380488e+05	-4.655398e+04
1.896259e+04	-1.211751e+05	-4.051567e+04
2.193791e+04	-1.011067e+05	-3.345464e+04
2.433604e+04	-7.830516e+04	-2.562677e+04
2.605562e+04	-5.338911e+04	-1.730365e+04
2.707130e+04	-2.705702e+04	-8.715416e+03
2.739964e+04	-2.210704e+01	-2.379924e+01
2.705597e+04	2.701188e+04	8.660228e+03
2.603504e+04	5.334145e+04	1.722886e+04
2.432721e+04	7.825435e+04	2.552948e+04
2.195779e+04	1.010538e+05	3.334393e+04
1.902095e+04	1.211228e+05	4.040909e+04
1.568094e+04	1.380008e+05	4.647038e+04
1.213339e+04	1.514295e+05	5.133708e+04
8.550676e+03	1.613421e+05	5.490595e+04
5.047466e+03	1.678066e+05	5.714813e+04
1.679011e+03	1.709575e+05	5.808055e+04
2.963012e+03	-1.575676e+05	-1.115502e+05
9.316947e+03	-1.548061e+05	-1.099499e+05
1.598628e+04	-1.493069e+05	-1.059863e+05
2.291250e+04	-1.408406e+05	-9.956599e+04
2.990841e+04	-1.291817e+05	-9.064136e+04
3.663977e+04	-1.141994e+05	-7.929431e+04
4.268314e+04	-9.595694e+04	-6.579934e+04
4.764047e+04	-7.477505e+04	-5.061267e+04
5.124714e+04	-5.122123e+04	-3.427609e+04
5.340237e+04	-2.603093e+04	-1.728789e+04
5.410923e+04	-1.389679e+01	-2.662070e+01
5.338579e+04	2.600291e+04	1.722625e+04
5.122436e+04	5.119248e+04	3.419238e+04
4.762953e+04	7.474535e+04	5.050275e+04
4.270249e+04	9.592695e+04	6.567248e+04
3.670005e+04	1.141704e+05	7.916962e+04
3.001091e+04	1.291551e+05	9.053955e+04
2.305288e+04	1.408174e+05	9.950446e+04
1.615809e+04	1.492882e+05	1.059772e+05
9.516077e+03	1.547927e+05	1.100012e+05
3.188059e+03	1.575611e+05	1.116722e+05
4.370265e+03	-1.378698e+05	-1.573233e+05
1.298468e+04	-1.355957e+05	-1.552356e+05
2.215124e+04	-1.313247e+05	-1.501646e+05
3.187626e+04	-1.247471e+05	-1.418647e+05
4.196480e+04	-1.154856e+05	-1.300878e+05
5.196389e+04	-1.031858e+05	-1.147263e+05
6.121219e+04	-8.765093e+04	-9.596118e+04
6.900536e+04	-6.897703e+04	-7.432177e+04
7.479932e+04	-4.761395e+04	-5.058963e+04
7.831503e+04	-2.431371e+04	-2.559022e+04
7.948101e+04	-9.069807e+00	-2.625574e+01
7.829910e+04	2.429655e+04	2.552927e+04
7.477752e+04	4.759938e+04	5.050619e+04
6.899575e+04	6.896592e+04	7.421125e+04
6.123339e+04	8.764354e+04	9.583307e+04
5.202619e+04	1.031815e+05	1.146003e+05
4.206880e+04	1.154827e+05	1.299843e+05
3.201754e+04	1.247433e+05	1.418004e+05
2.232396e+04	1.313183e+05	1.501514e+05
1.318532e+04	1.355863e+05	1.552813e+05
4.598574e+03	1.378580e+05	1.574377e+05
5.658508e+03	-1.150251e+05	-1.936126e+05
1.578907e+04	-1.132305e+05	-1.912668e+05
2.673592e+04	-1.101380e+05	-1.857160e+05
3.862412e+04	-1.054157e+05	-1.765401e+05
5.132564e+04	-9.861101e+04	-1.632244e+05
6.434510e+04	-8.921471e+04	-1.453371e+05
7.681628e+04	-7.679651e+04	-1.227712e+05
8.767718e+04	-6.119463e+04	-9.593828e+04
9.597620e+04	-4.267114e+04	-6.575619e+04
1.011111e+05	-2.193249e+04	-3.340231e+04
1.028348e+05	-8.568575e+00	-2.614857e+01
1.010984e+05	2.191770e+04	3.334254e+04
9.595986e+04	4.266266e+04	6.567641e+04
8.767380e+04	6.119455e+04	9.583460e+04
7.684289e+04	7.680453e+04	1.226531e+05
6.441039e+04	8.922819e+04	1.452231e+05
5.142905e+04	9.862570e+04	1.631329e+05
3.876127e+04	1.054268e+05	1.764845e+05
2.690242e+04	1.101415e+05	1.857061e+05
1.598293e+04	1.132243e+05	1.913101e+05
5.880596e+03	1.150084e+05	1.937184e+05
6.808706e+03	-9.197446e+04	-2.206149e+05
1.783955e+04	-9.058350e+04	-2.181631e+05
2.993695e+04	-8.843114e+04	-2.125486e+05
4.336476e+04	-8.521647e+04	-2.032062e+05
5.811493e+04	-8.049994e+04	-1.893709e+05
7.373399e+04	-7.372941e+04	-1.702491e+05
8.923200e+04	-6.434314e+04	-1.453217e+05
1.032058e+05	-5.196875e+04	-1.146908e+05
1.142109e+05	-3.665337e+04	-7.924333e+04
1.211731e+05	-1.898399e+04	-4.046067e+04
1.235409e+05	-1.109406e+01	-2.858209e+01
1.211662e+05	1.896527e+04	4.039795e+04
1.142043e+05	3.664403e+04	7.916573e+04
1.032131e+05	5.197177e+04	1.145960e+05
8.926713e+04	6.435759e+04	1.452183e+05
7.380330e+04	7.375111e+04	1.701531e+05
5.821691e+04	8.052318e+04	1.892970e+05
4.349527e+04	8.523543e+04	2.031643e+05
3.009303e+04	8.844082e+04	2.125456e+05
1.802078e+04	9.058024e+04	2.182054e+05
7.017003e+03	9.195565e+04	2.207110e+05
7.809830e+03	-7.068745e+04	-2.397328e+05
1.931741e+04	-6.961039e+04	-2.372499e+05
3.210150e+04	-6.812194e+04	-2.317653e+05
4.655455e+04	-6.597978e+04	-2.226169e+05
6.280571e+04	-6.281464e+04	-2.088528e+05
8.050157e+04	-5.812698e+04	-1.893652e+05
9.862061e+04	-5.134611e+04	-1.632061e+05
1.154955e+05	-4.199675e+04	-1.300545e+05
1.291837e+05	-2.995164e+04	-9.059858e+04
1.380408e+05	-1.563415e+04	-4.651203e+04
1.410926e+05	-1.517353e+01	-3.373535e+01
1.380412e+05	1.560780e+04	4.644148e+04
1.291898e+05	2.993626e+04	9.051989e+04
1.155167e+05	4.199608e+04	1.299672e+05
9.866651e+04	5.135917e+04	1.631174e+05
8.057605e+04	5.814908e+04	1.892870e+05
6.290678e+04	6.283971e+04	2.087959e+05
4.667855e+04	6.600195e+04	2.225883e+05
3.224639e+04	6.813596e+04	2.317693e+05
1.948367e+04	6.961159e+04	2.372915e+05
7.999944e+03	7.067151e+04	2.398191e+05
8.657454e+03	-5.203157e+04	-2.527388e+05
2.039460e+04	-5.119233e+04	-2.502492e+05
3.356928e+04	-5.013752e+04	-2.449365e+05
4.867586e+04	-4.868942e+04	-2.360833e+05
6.596744e+04	-4.657162e+04	-2.226184e+05
8.520878e+04	-4.339175e+04	-2.032049e+05
1.054121e+05	-3.866573e+04	-1.765320e+05
1.247433e+05	-3.193395e+04	-1.418490e+05
1.408322e+05	-2.298354e+04	-9.954739e+04
1.514565e+05	-1.207855e+04	-5.136800e+04
1.551608e+05	-2.040881e+01	-4.131594e+01
1.514648e+05	1.204161e+04	5.128450e+04
1.408522e+05	2.295763e+04	9.946223e+04
1.247803e+05	3.192368e+04	1.417641e+05
1.054710e+05	3.867124e+04	1.764531e+05
8.529075e+04	4.340920e+04	2.031402e+05
6.607003e+04	4.659540e+04	2.225747e+05
4.879585e+04	4.871389e+04	2.360651e+05
3.370506e+04	5.015734e+04	2.449464e+05
2.054678e+04	5.120216e+04	2.502906e+05
8.828329e+03	5.202572e+04	2.528170e+05
9.352887e+03	-3.605248e+04	-2.612192e+05
2.120273e+04	-3.539429e+04	-2.587213e+05
3.460362e+04	-3.460840e+04	-2.535435e+05
5.012030e+04	-3.357779e+04	-2.449406e+05
6.809911e+04	-3.212082e+04	-2.317737e+05
8.840747e+04	-2.997310e+04	-2.125603e+05
1.101157e+05	-2.679260e+04	-1.857296e+05
1.313039e+05	-2.222810e+04	-1.501801e+05
1.492874e+05	-1.607841e+04	-1.060056e+05
1.613542e+05	-8.487309e+03	-5.492770e+04
1.656014e+05	-2.653898e+01	-5.193148e+01
1.613700e+05	8.437938e+03	5.482452e+04
1.493213e+05	1.603981e+04	1.059058e+05
1.313581e+05	2.220566e+04	1.500885e+05
1.101906e+05	2.678818e+04	1.856519e+05
8.850096e+04	2.998467e+04	2.125018e+05
6.820777e+04	3.214392e+04	2.317381e+05
5.024093e+04	3.360716e+04	2.449298e+05
3.473460e+04	3.463859e+04	2.535586e+05
2.134428e+04	3.541948e+04	2.587639e+05
9.506527e+03	3.606604e+04	2.612926e+05
9.902269e+03	-2.233112e+04	-2.663564e+05
2.183314e+04	-2.181285e+04	-2.638365e+05
3.538563e+04	-2.118642e+04	-2.587233e+05
5.116397e+04	-2.038972e+04	-2.502581e+05
6.956999e+04	-1.933056e+04	-2.372687e+05
9.053760e+04	-1.787600e+04	-2.181940e+05
1.131848e+05	-1.585130e+04	-1.913106e+05
1.355551e+05	-1.307081e+04	-1.552920e+05
1.547741e+05	-9.420619e+03	-1.100172e+05
1.678020e+05	-4.970610e+03	-5.716290e+04
1.724161e+05	-3.246881e+01	-6.717352e+01
1.678253e+05	4.909498e+03	5.703068e+04
1.548222e+05	9.370717e+03	1.098928e+05
1.356279e+05	1.303832e+04	1.551830e+05
1.132791e+05	1.583974e+04	1.912240e+05
9.064787e+04	1.788526e+04	2.181339e+05
6.969087e+04	1.935757e+04	2.372363e+05
5.129159e+04	2.042987e+04	2.502528e+05
3.551798e+04	2.123439e+04	2.587443e+05
2.196968e+04	2.186260e+04	2.638835e+05
1.004335e+04	2.237550e+04	2.664307e+05
1.031560e+04	-1.025075e+04	-2.689127e+05
2.234709e+04	-9.841984e+03	-2.663514e+05
3.603188e+04	-9.305205e+03	-2.612189e+05
5.198462e+04	-8.629068e+03	-2.527505e+05
7.062287e+04	-7.806295e+03	-2.397627e+05
9.190078e+04	-6.834086e+03	-2.206682e+05
1.149517e+05	-5.714111e+03	-1.936921e+05
1.378063e+05	-4.453074e+03	-1.574280e+05
1.575215e+05	-3.065469e+03	-1.116745e+05
1.709338e+05	-1.578450e+03	-5.808719e+04
1.756959e+05	-3.453499e+01	-8.885450e+01
1.709646e+05	1.513113e+03	5.791312e+04
1.575847e+05	3.011645e+03	1.115130e+05
1.379002e+05	4.418315e+03	1.572902e+05
1.150696e+05	5.703658e+03	1.935871e+05
9.203362e+04	6.849434e+03	2.205999e+05
7.076281e+04	7.845688e+03	2.397302e+05
5.212662e+04	8.688889e+03	2.527508e+05
3.617318e+04	9.380822e+03	2.612489e+05